# vtk DataFile Version 2.0
untitled, Created by Gmsh
ASCII
DATASET UNSTRUCTURED_GRID
POINTS 25 double
0 0 0
4 0 0
4 4 0
0 4 0
0.9999999999976438 0 0
1.999999999994768 0 0
2.999999999997363 0 0
4 0.9999999999976438 0
4 1.999999999994768 0
4 2.999999999997363 0
3.000000000001388 4 0
2.000000000008238 4 0
1.000000000004162 4 0
0 3.000000000001388 0
0 2.000000000008238 0
0 1.000000000004162 0
3.000000000000382 2.999999999998369 0
2.999999999999374 1.999999999998136 0
2.999999999998369 0.9999999999992735 0
2.000000000004871 2.999999999999375 0
2.000000000001503 2.000000000001503 0
1.999999999998136 1.000000000000902 0
1.000000000002532 3.000000000000381 0
1.000000000000903 2.000000000004871 0
0.9999999999992735 1.000000000002532 0

CELLS 32 128
2 0 4
2 4 5
2 5 6
2 6 1
2 1 7
2 7 8
2 8 9
2 9 2
2 2 10
2 10 11
2 11 12
2 12 3
2 3 13
2 13 14
2 14 15
2 15 0
4 2 10 16 9
4 9 16 17 8
4 8 17 18 7
4 7 18 6 1
4 10 11 19 16
4 16 19 20 17
4 17 20 21 18
4 18 21 5 6
4 11 12 22 19
4 19 22 23 20
4 20 23 24 21
4 21 24 4 5
4 12 3 13 22
4 22 13 14 23
4 23 14 15 24
4 24 15 0 4

CELL_TYPES 32
3
3
3
3
3
3
3
3
3
3
3
3
3
3
3
3
9
9
9
9
9
9
9
9
9
9
9
9
9
9
9
9

CELL_DATA 32
SCALARS CellEntityIds int 1
LOOKUP_TABLE default
1
1
1
1
2
2
2
2
3
3
3
3
4
4
4
4
5
5
5
5
5
5
5
5
5
5
5
5
5
5
5
5
